LAMMPS (17 Nov 2016)
Reading data file ...
  orthogonal box = (-16.3873 -16.3873 -16.3873) to (24.4652 24.4652 24.4652)
  7 by 2 by 2 MPI processor grid
  reading atoms ...
  4000 atoms
Reading potential file LAMMPS_POTENTIALS/AlCu.eam.alloy with DATE: 2008-10-01
Neighbor list info ...
  1 neighbor list requests
  update every 1 steps, delay 10 steps, check yes
  max neighbors/atom: 2000, page size: 100000
  master list distance cutoff = 8.6825
  ghost atom cutoff = 8.6825
  binsize = 4.34125, bins = 10 10 10
Setting up Verlet run ...
  Unit style    : metal
  Current step  : 0
  Time step     : 0.001
Memory usage per processor = 3.68226 Mbytes
Step PotEng KinEng TotEng Enthalpy Temp Volume Press 
       0   -13111.418    129.22783    -12982.19   -13000.774          250    68179.911   -436.69109 
    1000   -13129.619    133.02248   -12996.596   -13093.854    257.34101    68179.911   -2285.4768 
    2000   -13134.561    126.87495   -13007.686   -13132.107    245.44819    68179.911   -2923.8065 
    3000   -13137.067    129.97135   -13007.095   -13139.232    251.43839    68179.911   -3105.1173 
    4000   -13132.737     130.3677   -13002.369   -13116.155    252.20515    68179.911   -2673.8822 
    5000   -13134.667    127.80089   -13006.866   -13131.224    247.23949    68179.911   -2922.3283 
    6000   -13133.921    127.84162   -13006.079   -13126.045    247.31828    68179.911   -2819.1102 
    7000   -13131.764    129.46195   -13002.302   -13114.171    250.45292    68179.911   -2628.8531 
    8000   -13135.917    129.91633       -13006   -13133.621    251.33196    68179.911   -2998.9843 
    9000    -13133.89    128.29819   -13005.592   -13127.044    248.20156    68179.911   -2854.0153 
   10000   -13132.399     132.6514   -12999.748   -13112.026    256.62313    68179.911   -2638.4453 
   11000   -13134.596    129.00578    -13005.59    -13128.94    249.57044    68179.911   -2898.6422 
   12000   -13137.484    131.16643   -13006.318   -13139.468    253.75035    68179.911   -3128.9269 
   13000   -13132.255    131.33776   -13000.917   -13113.274     254.0818    68179.911   -2640.3049 
   14000   -13134.216    127.92026   -13006.296   -13128.185    247.47041    68179.911      -2864.3 
   15000   -13134.958    129.26807    -13005.69   -13130.087    250.07785    68179.911   -2923.2342 
   16000   -13132.117    131.29103   -13000.826    -13113.22     253.9914    68179.911   -2641.1567 
   17000   -13132.546    127.16569    -13005.38   -13119.508    246.01066    68179.911   -2681.9292 
   18000   -13133.859    127.29794   -13006.561   -13127.548     246.2665    68179.911    -2843.106 
   19000    -13132.21    130.53395   -13001.676   -13111.487    252.52678    68179.911   -2580.4843 
   20000   -13136.128    128.82068   -13007.307   -13136.334    249.21234    68179.911   -3032.0341 
   21000   -13135.663    129.82889   -13005.834   -13131.678    251.16278    68179.911   -2957.2316 
   22000   -13132.496    129.65882   -13002.837   -13116.936    250.83379    68179.911   -2681.2334 
   23000   -13137.424    127.99261   -13009.432   -13147.082    247.61039    68179.911   -3234.6766 
   24000   -13133.786    129.28349   -13004.503   -13124.775    250.10767    68179.911   -2826.2901 
   25000   -13132.539    127.86576   -13004.674   -13118.695    247.36499    68179.911   -2679.4233 
   26000   -13138.023    127.98316    -13010.04   -13149.483    247.59209    68179.911   -3276.8059 
   27000   -13133.598    128.40482   -13005.193   -13124.497    248.40783    68179.911   -2803.5599 
   28000   -13133.609    128.86421   -13004.744    -13124.18    249.29656    68179.911   -2806.6523 
   29000   -13135.206    124.97637    -13010.23   -13139.822    241.77526    68179.911   -3045.3251 
   30000   -13133.898     128.8419   -13005.056   -13124.982    249.25338    68179.911   -2818.1732 
   31000   -13136.313    131.17345   -13005.139   -13135.302    253.76394    68179.911   -3058.7259 
   32000   -13135.778     125.7561   -13010.022    -13140.58     243.2837    68179.911   -3068.0006 
   33000   -13132.894    128.19037   -13004.703   -13119.951    247.99296    68179.911   -2708.2395 
   34000   -13132.752    127.86812   -13004.884    -13120.38    247.36956    68179.911   -2714.0655 
   35000    -13136.59    126.95832   -13009.631   -13143.935    245.60948    68179.911   -3156.0451 
   36000    -13133.07    128.93628   -13004.134   -13119.406    249.43597    68179.911   -2708.8186 
   37000   -13133.938    129.31128   -13004.627   -13125.117    250.16143    68179.911   -2831.4371 
   38000   -13135.917    127.23024   -13008.687   -13139.332    246.13552    68179.911   -3070.0777 
   39000   -13132.709    130.68825   -13002.021   -13114.837    252.82527    68179.911   -2651.0918 
   40000   -13136.239    129.75472   -13006.484   -13135.944    251.01931    68179.911   -3042.2001 
   41000   -13134.515    128.27644   -13006.238   -13128.037    248.15948    68179.911   -2862.1823 
   42000    -13133.97    133.27183   -13000.698   -13118.745     257.8234    68179.911   -2774.0205 
   43000     -13134.1    128.04273   -13006.057   -13128.183    247.70735    68179.911   -2869.8702 
   44000   -13135.412    129.30183   -13006.111   -13132.397    250.14316    68179.911   -2967.6308 
   45000    -13132.13    131.17377   -13000.956   -13112.801    253.76456    68179.911   -2628.2884 
   46000   -13135.215    129.84159   -13005.373   -13132.303    251.18737    68179.911   -2982.7444 
   47000   -13136.041    130.13358   -13005.908   -13137.123    251.75223    68179.911   -3083.4668 
   48000   -13133.241    131.73393   -13001.507   -13118.638    254.84822    68179.911   -2752.4851 
   49000   -13136.494    130.41418   -13006.079   -13137.005    252.29508    68179.911   -3076.6601 
   50000   -13134.415     128.2424   -13006.172   -13129.829    248.09362    68179.911   -2905.8292 
   51000    -13132.22    131.29913    -13000.92   -13112.721    254.00707    68179.911   -2627.2312 
   52000   -13130.811    129.40758   -13001.403   -13107.222    250.34773    68179.911   -2486.6681 
   53000   -13134.537    127.99816   -13006.539   -13130.671    247.62111    68179.911   -2917.0058 
   54000    -13134.92    129.22169   -13005.698   -13129.762    249.98812    68179.911   -2915.4154 
   55000   -13133.714    132.02796   -13001.686   -13119.309    255.41704    68179.911   -2764.0537 
   56000   -13136.554    128.39669   -13008.157   -13141.912    248.39211    68179.911   -3143.1379 
   57000   -13135.965    131.75887   -13004.206   -13131.968    254.89647    68179.911   -3002.2975 
   58000   -13135.474    130.64512   -13004.829    -13130.31    252.74184    68179.911   -2948.7002 
   59000   -13136.126    127.72985   -13008.396   -13139.078    247.10205    68179.911    -3070.931 
   60000   -13133.674    129.77753   -13003.897   -13123.148    251.06344    68179.911   -2802.3249 
Loop time of 3470.56 on 28 procs for 60000 steps with 4000 atoms

Performance: 1.494 ns/day, 16.067 hours/ns, 17.288 timesteps/s
96.3% CPU use with 28 MPI tasks x no OpenMP threads

MPI task timing breakdown:
Section |  min time  |  avg time  |  max time  |%varavg| %total
---------------------------------------------------------------
Pair    | 1097.9     | 1282       | 1511.8     | 407.7 | 36.94
Neigh   | 0          | 0          | 0          |   0.0 |  0.00
Comm    | 499.23     | 1019.5     | 1419       | 868.2 | 29.38
Output  | 3.8436     | 4.0121     | 4.0588     |   2.4 |  0.12
Modify  | 272.74     | 524.66     | 830.39     | 665.0 | 15.12
Other   |            | 640.4      |            |       | 18.45

Nlocal:    142.857 ave 158 max 120 min
Histogram: 5 1 0 1 1 0 5 6 4 5
Nghost:    1908.46 ave 2043 max 1829 min
Histogram: 12 0 7 1 0 0 0 0 0 8
Neighs:    11371.6 ave 12536 max 9030 min
Histogram: 1 2 2 0 1 1 3 7 8 3

Total # of neighbors = 318405
Ave neighs/atom = 79.6012
Neighbor list builds = 0
Dangerous builds = 0
All done
Total wall time: 0:57:51
