LAMMPS (17 Nov 2016)
Reading data file ...
  orthogonal box = (-16.3873 -16.3873 -16.3873) to (24.4652 24.4652 24.4652)
  7 by 2 by 2 MPI processor grid
  reading atoms ...
  4000 atoms
Reading potential file LAMMPS_POTENTIALS/AlCu.eam.alloy with DATE: 2008-10-01
Neighbor list info ...
  1 neighbor list requests
  update every 1 steps, delay 10 steps, check yes
  max neighbors/atom: 2000, page size: 100000
  master list distance cutoff = 8.6825
  ghost atom cutoff = 8.6825
  binsize = 4.34125, bins = 10 10 10
Setting up Verlet run ...
  Unit style    : metal
  Current step  : 0
  Time step     : 0.001
Memory usage per processor = 3.68226 Mbytes
Step PotEng KinEng TotEng Enthalpy Temp Volume Press 
       0   -13111.418     155.0734   -12956.345   -12957.698          300    68179.911    -31.79022 
    1000   -13106.891    156.04313   -12950.848   -12930.769    301.87602    68179.911    471.82336 
    2000   -13106.245    155.25858   -12950.986   -12928.205    300.35825    68179.911    535.34982 
    3000   -13109.938    155.35528   -12954.583   -12947.358    300.54532    68179.911    169.78492 
    4000   -13110.277    153.71004   -12956.567   -12955.141     297.3625    68179.911    33.506306 
    5000   -13110.621    159.74964   -12950.872   -12945.299     309.0465    68179.911    130.95534 
    6000   -13108.754    153.41228   -12955.342   -12945.472    296.78646    68179.911    231.94661 
    7000   -13108.446    152.21815   -12956.228   -12945.719    294.47634    68179.911    246.94393 
    8000   -13108.276    155.37279   -12952.903   -12940.793     300.5792    68179.911     284.5874 
    9000   -13110.205    152.34875   -12957.856   -12957.052    294.72899    68179.911    18.889047 
   10000   -13113.261     156.3323   -12956.928   -12967.036    302.43544    68179.911   -237.50997 
   11000   -13109.888    157.36375   -12952.525   -12944.802    304.43084    68179.911    181.47941 
   12000   -13110.059    152.48207   -12957.577    -12955.23    294.98691    68179.911    55.147055 
   13000   -13111.253    154.43101   -12956.822   -12957.741    298.75725    68179.911   -21.604559 
   14000   -13108.871    155.02542   -12953.845   -12943.082    299.90719    68179.911    252.92615 
   15000   -13109.485    155.30193   -12954.183   -12948.235    300.44211    68179.911    139.77206 
   16000   -13110.776     153.0895   -12957.686   -12958.423    296.16201    68179.911   -17.320056 
   17000   -13109.635    157.83931   -12951.795   -12943.891    305.35084    68179.911     185.7377 
   18000   -13108.986    155.96469   -12953.021   -12945.012    301.72426    68179.911    188.21865 
   19000   -13109.448      153.646   -12955.802   -12950.296     297.2386    68179.911    129.38383 
   20000   -13108.371    154.95496   -12953.416   -12941.873    299.77087    68179.911    271.23593 
   21000   -13107.355    157.48678   -12949.868   -12933.536    304.66885    68179.911    383.79988 
   22000   -13109.204    153.44636   -12955.757   -12949.472    296.85238    68179.911     147.7113 
   23000   -13108.609    153.38147   -12955.227   -12947.875    296.72685    68179.911    172.77698 
   24000   -13107.439    157.53811     -12949.9   -12934.673    304.76815    68179.911    357.84549 
   25000    -13109.21    155.02332   -12954.187   -12947.935    299.90312    68179.911    146.91256 
   26000   -13107.872    151.98576   -12955.886   -12943.048    294.02677    68179.911    301.69782 
   27000   -13105.251    155.90745   -12949.344   -12922.786    301.61353    68179.911    624.09366 
   28000   -13109.489    153.81406   -12955.675    -12949.46    297.56372    68179.911    146.04312 
   29000   -13109.007    154.27383   -12954.733   -12946.833    298.45318    68179.911    185.65232 
   30000   -13106.863    158.96792   -12947.896    -12927.21    307.53423    68179.911    486.09621 
   31000   -13108.032    157.45222    -12950.58    -12937.83    304.60199    68179.911    299.60841 
   32000   -13109.409     154.1754   -12955.233   -12949.659    298.26277    68179.911    130.98352 
   33000   -13109.486    153.51903   -12955.967   -12950.796    296.99297    68179.911     121.5039 
   34000   -13104.422    154.56773   -12949.855   -12922.296    299.02175    68179.911    647.59931 
   35000   -13109.031    154.04882   -12954.982   -12948.717     298.0179    68179.911    147.23429 
   36000   -13110.725    156.30353   -12954.422   -12952.589    302.37978    68179.911    43.064588 
   37000   -13109.987    159.98263   -12950.004   -12941.005    309.49724    68179.911    211.48013 
   38000   -13109.697    156.33016   -12953.367   -12945.718     302.4313    68179.911    179.72911 
   39000   -13108.856    152.99329   -12955.862   -12946.627    295.97589    68179.911    217.02611 
   40000   -13106.692    157.23401   -12949.458   -12928.494    304.17986    68179.911    492.64463 
   41000   -13108.122    152.40742   -12955.714   -12944.127    294.84249    68179.911    272.29285 
   42000   -13108.402    152.94237   -12955.459   -12947.027    295.87739    68179.911    198.15265 
   43000   -13106.342    155.62267    -12950.72   -12926.989    301.06262    68179.911    557.64715 
   44000   -13110.473     151.8334   -12958.639    -12957.98    293.73202    68179.911    15.485645 
   45000   -13108.021    154.29047   -12953.731   -12938.238    298.48538    68179.911    364.06393 
   46000   -13107.643    154.69935   -12952.944   -12936.914    299.27638    68179.911    376.69628 
   47000   -13111.724    150.56807   -12961.156   -12967.813    291.28413    68179.911   -156.42751 
   48000   -13109.413    154.53205   -12954.881   -12947.942    298.95274    68179.911    163.08189 
   49000   -13109.056    156.36728   -12952.689   -12943.591    302.50311    68179.911    213.79411 
   50000   -13113.457    154.07314   -12959.384   -12970.381    298.06494    68179.911   -258.41555 
   51000   -13109.725    155.45201   -12954.273   -12948.264    300.73246    68179.911    141.22142 
   52000   -13108.552    155.11772   -12953.435   -12945.512    300.08574    68179.911    186.18405 
   53000   -13111.829    153.67868    -12958.15   -12961.323    297.30183    68179.911   -74.571178 
   54000   -13110.102    154.55032   -12955.552   -12953.333    298.98808    68179.911    52.130624 
   55000   -13109.587    156.94875   -12952.638   -12945.729      303.628    68179.911    162.36913 
   56000   -13111.124    153.07862   -12958.045   -12961.485    296.14097    68179.911    -80.84914 
   57000   -13108.402    154.02316   -12954.379   -12942.867    297.96825    68179.911    270.53519 
   58000   -13109.534     157.3921   -12952.142   -12943.582    304.48569    68179.911    201.15527 
   59000   -13109.268    151.55121   -12957.717   -12951.943    293.18608    68179.911    135.67974 
   60000   -13107.439    157.70729   -12949.732   -12931.875    305.09545    68179.911     419.6382 
Loop time of 4407.89 on 28 procs for 60000 steps with 4000 atoms

Performance: 1.176 ns/day, 20.407 hours/ns, 13.612 timesteps/s
96.3% CPU use with 28 MPI tasks x no OpenMP threads

MPI task timing breakdown:
Section |  min time  |  avg time  |  max time  |%varavg| %total
---------------------------------------------------------------
Pair    | 1467.7     | 1672.3     | 1780.2     | 227.3 | 37.94
Neigh   | 0.0007422  | 0.00085503 | 0.00092411 |   0.2 |  0.00
Comm    | 919.87     | 1252.8     | 1791.9     | 606.4 | 28.42
Output  | 4.2855     | 4.3412     | 4.4066     |   1.2 |  0.10
Modify  | 390.62     | 838.84     | 1040.1     | 623.3 | 19.03
Other   |            | 639.6      |            |       | 14.51

Nlocal:    142.857 ave 158 max 122 min
Histogram: 5 2 0 1 0 0 11 0 5 4
Nghost:    1908.57 ave 2041 max 1828 min
Histogram: 12 0 5 3 0 0 0 0 0 8
Neighs:    11370.1 ave 13249 max 9292 min
Histogram: 2 1 4 1 3 4 4 7 1 1

Total # of neighbors = 318362
Ave neighs/atom = 79.5905
Neighbor list builds = 2
Dangerous builds = 0
All done
Total wall time: 1:13:28
