ITEM: TIMESTEP
0
ITEM: NUMBER OF ATOMS
4000
ITEM: BOX BOUNDS pp pp pp
-1.6155717899999999e+01 2.4233575800000001e+01
-1.6155717899999999e+01 2.4233575800000001e+01
-1.6155717899999999e+01 2.4233575800000001e+01
ITEM: ATOMS id type xs ys zs
1 1 0 0 0
2 1 0 0.05 0.05
3 1 0.05 0 0.05
4 1 0.05 0.05 0
5 1 0 0 0.1
8 1 0.05 0.05 0.1
41 1 0 0.1 0
43 1 0.05 0.1 0.05
45 1 0 0.1 0.1
401 1 0.1 0 0
402 1 0.1 0.05 0.05
405 1 0.1 0 0.1
441 1 0.1 0.1 0
445 1 0.1 0.1 0.1
403 1 0.15 0 0.05
404 1 0.15 0.05 0
408 1 0.15 0.05 0.1
443 1 0.15 0.1 0.05
801 1 0.2 0 0
802 1 0.2 0.05 0.05
805 1 0.2 0 0.1
841 1 0.2 0.1 0
845 1 0.2 0.1 0.1
803 1 0.25 0 0.05
804 1 0.25 0.05 0
808 1 0.25 0.05 0.1
843 1 0.25 0.1 0.05
1201 1 0.3 0 0
1202 1 0.3 0.05 0.05
1203 1 0.35 0 0.05
1204 1 0.35 0.05 0
1205 1 0.3 0 0.1
1208 1 0.35 0.05 0.1
1241 1 0.3 0.1 0
1243 1 0.35 0.1 0.05
1245 1 0.3 0.1 0.1
1601 1 0.4 0 0
1602 1 0.4 0.05 0.05
1603 1 0.45 0 0.05
1604 1 0.45 0.05 0
1605 1 0.4 0 0.1
1608 1 0.45 0.05 0.1
1641 1 0.4 0.1 0
1643 1 0.45 0.1 0.05
1645 1 0.4 0.1 0.1
42 1 0 0.15 0.05
44 1 0.05 0.15 0
48 1 0.05 0.15 0.1
81 1 0 0.2 0
83 1 0.05 0.2 0.05
85 1 0 0.2 0.1
442 1 0.1 0.15 0.05
481 1 0.1 0.2 0
485 1 0.1 0.2 0.1
444 1 0.15 0.15 0
448 1 0.15 0.15 0.1
483 1 0.15 0.2 0.05
842 1 0.2 0.15 0.05
881 1 0.2 0.2 0
885 1 0.2 0.2 0.1
844 1 0.25 0.15 0
848 1 0.25 0.15 0.1
883 1 0.25 0.2 0.05
1242 1 0.3 0.15 0.05
1244 1 0.35 0.15 0
1248 1 0.35 0.15 0.1
1281 1 0.3 0.2 0
1283 1 0.35 0.2 0.05
1285 1 0.3 0.2 0.1
1642 1 0.4 0.15 0.05
1644 1 0.45 0.15 0
1648 1 0.45 0.15 0.1
1681 1 0.4 0.2 0
1683 1 0.45 0.2 0.05
1685 1 0.4 0.2 0.1
82 1 0 0.25 0.05
84 1 0.05 0.25 0
88 1 0.05 0.25 0.1
121 1 0 0.3 0
122 1 0 0.35 0.05
123 1 0.05 0.3 0.05
124 1 0.05 0.35 0
125 1 0 0.3 0.1
128 1 0.05 0.35 0.1
482 1 0.1 0.25 0.05
521 1 0.1 0.3 0
522 1 0.1 0.35 0.05
525 1 0.1 0.3 0.1
484 1 0.15 0.25 0
488 1 0.15 0.25 0.1
523 1 0.15 0.3 0.05
524 1 0.15 0.35 0
528 1 0.15 0.35 0.1
882 1 0.2 0.25 0.05
921 1 0.2 0.3 0
922 1 0.2 0.35 0.05
925 1 0.2 0.3 0.1
884 1 0.25 0.25 0
888 1 0.25 0.25 0.1
923 1 0.25 0.3 0.05
924 1 0.25 0.35 0
928 1 0.25 0.35 0.1
1282 1 0.3 0.25 0.05
1284 1 0.35 0.25 0
1288 1 0.35 0.25 0.1
1321 1 0.3 0.3 0
1322 1 0.3 0.35 0.05
1323 1 0.35 0.3 0.05
1324 1 0.35 0.35 0
1325 1 0.3 0.3 0.1
1328 1 0.35 0.35 0.1
1682 1 0.4 0.25 0.05
1684 1 0.45 0.25 0
1688 1 0.45 0.25 0.1
1721 1 0.4 0.3 0
1722 1 0.4 0.35 0.05
1723 1 0.45 0.3 0.05
1724 1 0.45 0.35 0
1725 1 0.4 0.3 0.1
1728 1 0.45 0.35 0.1
161 1 0 0.4 0
162 1 0 0.45 0.05
163 1 0.05 0.4 0.05
164 1 0.05 0.45 0
165 1 0 0.4 0.1
168 1 0.05 0.45 0.1
561 1 0.1 0.4 0
562 1 0.1 0.45 0.05
565 1 0.1 0.4 0.1
563 1 0.15 0.4 0.05
564 1 0.15 0.45 0
568 1 0.15 0.45 0.1
961 1 0.2 0.4 0
962 1 0.2 0.45 0.05
965 1 0.2 0.4 0.1
963 1 0.25 0.4 0.05
964 1 0.25 0.45 0
968 1 0.25 0.45 0.1
1361 1 0.3 0.4 0
1362 1 0.3 0.45 0.05
1363 1 0.35 0.4 0.05
1364 1 0.35 0.45 0
1365 1 0.3 0.4 0.1
1368 1 0.35 0.45 0.1
1761 1 0.4 0.4 0
1762 1 0.4 0.45 0.05
1763 1 0.45 0.4 0.05
1764 1 0.45 0.45 0
1765 1 0.4 0.4 0.1
1768 1 0.45 0.45 0.1
6 1 0 0.05 0.15
7 1 0.05 0 0.15
9 1 0 0 0.2
10 1 0 0.05 0.25
11 1 0.05 0 0.25
12 1 0.05 0.05 0.2
47 1 0.05 0.1 0.15
49 1 0 0.1 0.2
51 1 0.05 0.1 0.25
406 1 0.1 0.05 0.15
409 1 0.1 0 0.2
410 1 0.1 0.05 0.25
449 1 0.1 0.1 0.2
407 1 0.15 0 0.15
411 1 0.15 0 0.25
412 1 0.15 0.05 0.2
447 1 0.15 0.1 0.15
451 1 0.15 0.1 0.25
806 1 0.2 0.05 0.15
809 1 0.2 0 0.2
810 1 0.2 0.05 0.25
849 1 0.2 0.1 0.2
807 1 0.25 0 0.15
811 1 0.25 0 0.25
812 1 0.25 0.05 0.2
847 1 0.25 0.1 0.15
851 1 0.25 0.1 0.25
1206 1 0.3 0.05 0.15
1207 1 0.35 0 0.15
1209 1 0.3 0 0.2
1210 1 0.3 0.05 0.25
1211 1 0.35 0 0.25
1212 1 0.35 0.05 0.2
1247 1 0.35 0.1 0.15
1249 1 0.3 0.1 0.2
1251 1 0.35 0.1 0.25
1606 1 0.4 0.05 0.15
1607 1 0.45 0 0.15
1609 1 0.4 0 0.2
1610 1 0.4 0.05 0.25
1611 1 0.45 0 0.25
1612 1 0.45 0.05 0.2
1647 1 0.45 0.1 0.15
1649 1 0.4 0.1 0.2
1651 1 0.45 0.1 0.25
46 1 0 0.15 0.15
50 1 0 0.15 0.25
52 1 0.05 0.15 0.2
87 1 0.05 0.2 0.15
89 1 0 0.2 0.2
91 1 0.05 0.2 0.25
446 1 0.1 0.15 0.15
450 1 0.1 0.15 0.25
489 1 0.1 0.2 0.2
452 1 0.15 0.15 0.2
487 1 0.15 0.2 0.15
491 1 0.15 0.2 0.25
846 1 0.2 0.15 0.15
850 1 0.2 0.15 0.25
889 1 0.2 0.2 0.2
852 1 0.25 0.15 0.2
887 1 0.25 0.2 0.15
891 1 0.25 0.2 0.25
1246 1 0.3 0.15 0.15
1250 1 0.3 0.15 0.25
1252 1 0.35 0.15 0.2
1287 1 0.35 0.2 0.15
1289 1 0.3 0.2 0.2
1291 1 0.35 0.2 0.25
1646 1 0.4 0.15 0.15
1650 1 0.4 0.15 0.25
1652 1 0.45 0.15 0.2
1687 1 0.45 0.2 0.15
1689 1 0.4 0.2 0.2
1691 1 0.45 0.2 0.25
86 1 0 0.25 0.15
90 1 0 0.25 0.25
92 1 0.05 0.25 0.2
126 1 0 0.35 0.15
127 1 0.05 0.3 0.15
129 1 0 0.3 0.2
130 1 0 0.35 0.25
131 1 0.05 0.3 0.25
132 1 0.05 0.35 0.2
486 1 0.1 0.25 0.15
490 1 0.1 0.25 0.25
526 1 0.1 0.35 0.15
529 1 0.1 0.3 0.2
530 1 0.1 0.35 0.25
492 1 0.15 0.25 0.2
527 1 0.15 0.3 0.15
531 1 0.15 0.3 0.25
532 1 0.15 0.35 0.2
886 1 0.2 0.25 0.15
890 1 0.2 0.25 0.25
926 1 0.2 0.35 0.15
929 1 0.2 0.3 0.2
930 1 0.2 0.35 0.25
892 1 0.25 0.25 0.2
927 1 0.25 0.3 0.15
931 1 0.25 0.3 0.25
932 1 0.25 0.35 0.2
1286 1 0.3 0.25 0.15
1290 1 0.3 0.25 0.25
1292 1 0.35 0.25 0.2
1326 1 0.3 0.35 0.15
1327 1 0.35 0.3 0.15
1329 1 0.3 0.3 0.2
1330 1 0.3 0.35 0.25
1331 1 0.35 0.3 0.25
1332 1 0.35 0.35 0.2
1686 1 0.4 0.25 0.15
1690 1 0.4 0.25 0.25
1692 1 0.45 0.25 0.2
1726 1 0.4 0.35 0.15
1727 1 0.45 0.3 0.15
1729 1 0.4 0.3 0.2
1730 1 0.4 0.35 0.25
1731 1 0.45 0.3 0.25
1732 1 0.45 0.35 0.2
166 1 0 0.45 0.15
167 1 0.05 0.4 0.15
169 1 0 0.4 0.2
170 1 0 0.45 0.25
171 1 0.05 0.4 0.25
172 1 0.05 0.45 0.2
566 1 0.1 0.45 0.15
569 1 0.1 0.4 0.2
570 1 0.1 0.45 0.25
567 1 0.15 0.4 0.15
571 1 0.15 0.4 0.25
572 1 0.15 0.45 0.2
966 1 0.2 0.45 0.15
969 1 0.2 0.4 0.2
970 1 0.2 0.45 0.25
967 1 0.25 0.4 0.15
971 1 0.25 0.4 0.25
972 1 0.25 0.45 0.2
1366 1 0.3 0.45 0.15
1367 1 0.35 0.4 0.15
1369 1 0.3 0.4 0.2
1370 1 0.3 0.45 0.25
1371 1 0.35 0.4 0.25
1372 1 0.35 0.45 0.2
1766 1 0.4 0.45 0.15
1767 1 0.45 0.4 0.15
1769 1 0.4 0.4 0.2
1770 1 0.4 0.45 0.25
1771 1 0.45 0.4 0.25
1772 1 0.45 0.45 0.2
13 1 0 0 0.3
14 1 0 0.05 0.35
15 1 0.05 0 0.35
16 1 0.05 0.05 0.3
17 1 0 0 0.4
20 1 0.05 0.05 0.4
53 1 0 0.1 0.3
55 1 0.05 0.1 0.35
57 1 0 0.1 0.4
413 1 0.1 0 0.3
414 1 0.1 0.05 0.35
417 1 0.1 0 0.4
453 1 0.1 0.1 0.3
457 1 0.1 0.1 0.4
415 1 0.15 0 0.35
416 1 0.15 0.05 0.3
420 1 0.15 0.05 0.4
455 1 0.15 0.1 0.35
813 1 0.2 0 0.3
814 1 0.2 0.05 0.35
817 1 0.2 0 0.4
853 1 0.2 0.1 0.3
857 1 0.2 0.1 0.4
815 1 0.25 0 0.35
816 1 0.25 0.05 0.3
820 1 0.25 0.05 0.4
855 1 0.25 0.1 0.35
1213 1 0.3 0 0.3
1214 1 0.3 0.05 0.35
1215 1 0.35 0 0.35
1216 1 0.35 0.05 0.3
1217 1 0.3 0 0.4
1220 1 0.35 0.05 0.4
1253 1 0.3 0.1 0.3
1255 1 0.35 0.1 0.35
1257 1 0.3 0.1 0.4
1613 1 0.4 0 0.3
1614 1 0.4 0.05 0.35
1615 1 0.45 0 0.35
1616 1 0.45 0.05 0.3
1617 1 0.4 0 0.4
1620 1 0.45 0.05 0.4
1653 1 0.4 0.1 0.3
1655 1 0.45 0.1 0.35
1657 1 0.4 0.1 0.4
54 1 0 0.15 0.35
56 1 0.05 0.15 0.3
60 1 0.05 0.15 0.4
93 1 0 0.2 0.3
95 1 0.05 0.2 0.35
97 1 0 0.2 0.4
454 1 0.1 0.15 0.35
493 1 0.1 0.2 0.3
497 1 0.1 0.2 0.4
456 1 0.15 0.15 0.3
460 1 0.15 0.15 0.4
495 1 0.15 0.2 0.35
854 1 0.2 0.15 0.35
893 1 0.2 0.2 0.3
897 1 0.2 0.2 0.4
856 1 0.25 0.15 0.3
860 1 0.25 0.15 0.4
895 1 0.25 0.2 0.35
1254 1 0.3 0.15 0.35
1256 1 0.35 0.15 0.3
1260 1 0.35 0.15 0.4
1293 1 0.3 0.2 0.3
1295 1 0.35 0.2 0.35
1297 1 0.3 0.2 0.4
1654 1 0.4 0.15 0.35
1656 1 0.45 0.15 0.3
1660 1 0.45 0.15 0.4
1693 1 0.4 0.2 0.3
1695 1 0.45 0.2 0.35
1697 1 0.4 0.2 0.4
94 1 0 0.25 0.35
96 1 0.05 0.25 0.3
100 1 0.05 0.25 0.4
133 1 0 0.3 0.3
134 1 0 0.35 0.35
135 1 0.05 0.3 0.35
136 1 0.05 0.35 0.3
137 1 0 0.3 0.4
140 1 0.05 0.35 0.4
494 1 0.1 0.25 0.35
533 1 0.1 0.3 0.3
534 1 0.1 0.35 0.35
537 1 0.1 0.3 0.4
496 1 0.15 0.25 0.3
500 1 0.15 0.25 0.4
535 1 0.15 0.3 0.35
536 1 0.15 0.35 0.3
540 1 0.15 0.35 0.4
894 1 0.2 0.25 0.35
933 1 0.2 0.3 0.3
934 1 0.2 0.35 0.35
937 1 0.2 0.3 0.4
896 1 0.25 0.25 0.3
900 1 0.25 0.25 0.4
935 1 0.25 0.3 0.35
936 1 0.25 0.35 0.3
940 1 0.25 0.35 0.4
1294 1 0.3 0.25 0.35
1296 1 0.35 0.25 0.3
1300 1 0.35 0.25 0.4
1333 1 0.3 0.3 0.3
1334 1 0.3 0.35 0.35
1335 1 0.35 0.3 0.35
1336 1 0.35 0.35 0.3
1337 1 0.3 0.3 0.4
1340 1 0.35 0.35 0.4
1694 1 0.4 0.25 0.35
1696 1 0.45 0.25 0.3
1700 1 0.45 0.25 0.4
1733 1 0.4 0.3 0.3
1734 1 0.4 0.35 0.35
1735 1 0.45 0.3 0.35
1736 1 0.45 0.35 0.3
1737 1 0.4 0.3 0.4
1740 1 0.45 0.35 0.4
173 1 0 0.4 0.3
174 1 0 0.45 0.35
175 1 0.05 0.4 0.35
176 1 0.05 0.45 0.3
177 1 0 0.4 0.4
180 1 0.05 0.45 0.4
573 1 0.1 0.4 0.3
574 1 0.1 0.45 0.35
577 1 0.1 0.4 0.4
575 1 0.15 0.4 0.35
576 1 0.15 0.45 0.3
580 1 0.15 0.45 0.4
973 1 0.2 0.4 0.3
974 1 0.2 0.45 0.35
977 1 0.2 0.4 0.4
975 1 0.25 0.4 0.35
976 1 0.25 0.45 0.3
980 1 0.25 0.45 0.4
1373 1 0.3 0.4 0.3
1374 1 0.3 0.45 0.35
1375 1 0.35 0.4 0.35
1376 1 0.35 0.45 0.3
1377 1 0.3 0.4 0.4
1380 1 0.35 0.45 0.4
1773 1 0.4 0.4 0.3
1774 1 0.4 0.45 0.35
1775 1 0.45 0.4 0.35
1776 1 0.45 0.45 0.3
1777 1 0.4 0.4 0.4
1780 1 0.45 0.45 0.4
18 1 0 0.05 0.45
19 1 0.05 0 0.45
21 1 0 0 0.5
22 1 0 0.05 0.55
23 1 0.05 0 0.55
24 1 0.05 0.05 0.5
59 1 0.05 0.1 0.45
61 1 0 0.1 0.5
63 1 0.05 0.1 0.55
418 1 0.1 0.05 0.45
421 1 0.1 0 0.5
422 1 0.1 0.05 0.55
461 1 0.1 0.1 0.5
419 1 0.15 0 0.45
423 1 0.15 0 0.55
424 1 0.15 0.05 0.5
459 1 0.15 0.1 0.45
463 1 0.15 0.1 0.55
818 1 0.2 0.05 0.45
821 1 0.2 0 0.5
822 1 0.2 0.05 0.55
861 1 0.2 0.1 0.5
819 1 0.25 0 0.45
823 1 0.25 0 0.55
824 1 0.25 0.05 0.5
859 1 0.25 0.1 0.45
863 1 0.25 0.1 0.55
1218 1 0.3 0.05 0.45
1219 1 0.35 0 0.45
1221 1 0.3 0 0.5
1222 1 0.3 0.05 0.55
1223 1 0.35 0 0.55
1224 1 0.35 0.05 0.5
1259 1 0.35 0.1 0.45
1261 1 0.3 0.1 0.5
1263 1 0.35 0.1 0.55
1618 1 0.4 0.05 0.45
1619 1 0.45 0 0.45
1621 1 0.4 0 0.5
1622 1 0.4 0.05 0.55
1623 1 0.45 0 0.55
1624 1 0.45 0.05 0.5
1659 1 0.45 0.1 0.45
1661 1 0.4 0.1 0.5
1663 1 0.45 0.1 0.55
58 1 0 0.15 0.45
62 1 0 0.15 0.55
64 1 0.05 0.15 0.5
99 1 0.05 0.2 0.45
101 1 0 0.2 0.5
103 1 0.05 0.2 0.55
458 1 0.1 0.15 0.45
462 1 0.1 0.15 0.55
501 1 0.1 0.2 0.5
464 1 0.15 0.15 0.5
499 1 0.15 0.2 0.45
503 1 0.15 0.2 0.55
858 1 0.2 0.15 0.45
862 1 0.2 0.15 0.55
901 1 0.2 0.2 0.5
864 1 0.25 0.15 0.5
899 1 0.25 0.2 0.45
903 1 0.25 0.2 0.55
1258 1 0.3 0.15 0.45
1262 1 0.3 0.15 0.55
1264 1 0.35 0.15 0.5
1299 1 0.35 0.2 0.45
1301 1 0.3 0.2 0.5
1303 1 0.35 0.2 0.55
1658 1 0.4 0.15 0.45
1662 1 0.4 0.15 0.55
1664 1 0.45 0.15 0.5
1699 1 0.45 0.2 0.45
1701 1 0.4 0.2 0.5
1703 1 0.45 0.2 0.55
98 1 0 0.25 0.45
102 1 0 0.25 0.55
104 1 0.05 0.25 0.5
138 1 0 0.35 0.45
139 1 0.05 0.3 0.45
141 1 0 0.3 0.5
142 1 0 0.35 0.55
143 1 0.05 0.3 0.55
144 1 0.05 0.35 0.5
498 1 0.1 0.25 0.45
502 1 0.1 0.25 0.55
538 1 0.1 0.35 0.45
541 1 0.1 0.3 0.5
542 1 0.1 0.35 0.55
504 1 0.15 0.25 0.5
539 1 0.15 0.3 0.45
543 1 0.15 0.3 0.55
544 1 0.15 0.35 0.5
898 1 0.2 0.25 0.45
902 1 0.2 0.25 0.55
938 1 0.2 0.35 0.45
941 1 0.2 0.3 0.5
942 1 0.2 0.35 0.55
904 1 0.25 0.25 0.5
939 1 0.25 0.3 0.45
943 1 0.25 0.3 0.55
944 1 0.25 0.35 0.5
1298 1 0.3 0.25 0.45
1302 1 0.3 0.25 0.55
1304 1 0.35 0.25 0.5
1338 1 0.3 0.35 0.45
1339 1 0.35 0.3 0.45
1341 1 0.3 0.3 0.5
1342 1 0.3 0.35 0.55
1343 1 0.35 0.3 0.55
1344 1 0.35 0.35 0.5
1698 1 0.4 0.25 0.45
1702 1 0.4 0.25 0.55
1704 1 0.45 0.25 0.5
1738 1 0.4 0.35 0.45
1739 1 0.45 0.3 0.45
1741 1 0.4 0.3 0.5
1742 1 0.4 0.35 0.55
1743 1 0.45 0.3 0.55
1744 1 0.45 0.35 0.5
178 1 0 0.45 0.45
179 1 0.05 0.4 0.45
181 1 0 0.4 0.5
182 1 0 0.45 0.55
183 1 0.05 0.4 0.55
184 1 0.05 0.45 0.5
578 1 0.1 0.45 0.45
581 1 0.1 0.4 0.5
582 1 0.1 0.45 0.55
579 1 0.15 0.4 0.45
583 1 0.15 0.4 0.55
584 1 0.15 0.45 0.5
978 1 0.2 0.45 0.45
981 1 0.2 0.4 0.5
982 1 0.2 0.45 0.55
979 1 0.25 0.4 0.45
983 1 0.25 0.4 0.55
984 1 0.25 0.45 0.5
1378 1 0.3 0.45 0.45
1379 1 0.35 0.4 0.45
1381 1 0.3 0.4 0.5
1382 1 0.3 0.45 0.55
1383 1 0.35 0.4 0.55
1384 1 0.35 0.45 0.5
1778 1 0.4 0.45 0.45
1779 1 0.45 0.4 0.45
1781 1 0.4 0.4 0.5
1782 1 0.4 0.45 0.55
1783 1 0.45 0.4 0.55
1784 1 0.45 0.45 0.5
25 1 0 0 0.6
26 1 0 0.05 0.65
27 1 0.05 0 0.65
28 1 0.05 0.05 0.6
29 1 0 0 0.7
32 1 0.05 0.05 0.7
65 1 0 0.1 0.6
67 1 0.05 0.1 0.65
69 1 0 0.1 0.7
425 1 0.1 0 0.6
426 1 0.1 0.05 0.65
429 1 0.1 0 0.7
465 1 0.1 0.1 0.6
469 1 0.1 0.1 0.7
427 1 0.15 0 0.65
428 1 0.15 0.05 0.6
432 1 0.15 0.05 0.7
467 1 0.15 0.1 0.65
825 1 0.2 0 0.6
826 1 0.2 0.05 0.65
829 1 0.2 0 0.7
865 1 0.2 0.1 0.6
869 1 0.2 0.1 0.7
827 1 0.25 0 0.65
828 1 0.25 0.05 0.6
832 1 0.25 0.05 0.7
867 1 0.25 0.1 0.65
1225 1 0.3 0 0.6
1226 1 0.3 0.05 0.65
1227 1 0.35 0 0.65
1228 1 0.35 0.05 0.6
1229 1 0.3 0 0.7
1232 1 0.35 0.05 0.7
1265 1 0.3 0.1 0.6
1267 1 0.35 0.1 0.65
1269 1 0.3 0.1 0.7
1625 1 0.4 0 0.6
1626 1 0.4 0.05 0.65
1627 1 0.45 0 0.65
1628 1 0.45 0.05 0.6
1629 1 0.4 0 0.7
1632 1 0.45 0.05 0.7
1665 1 0.4 0.1 0.6
1667 1 0.45 0.1 0.65
1669 1 0.4 0.1 0.7
66 1 0 0.15 0.65
68 1 0.05 0.15 0.6
72 1 0.05 0.15 0.7
105 1 0 0.2 0.6
107 1 0.05 0.2 0.65
109 1 0 0.2 0.7
466 1 0.1 0.15 0.65
505 1 0.1 0.2 0.6
509 1 0.1 0.2 0.7
468 1 0.15 0.15 0.6
472 1 0.15 0.15 0.7
507 1 0.15 0.2 0.65
866 1 0.2 0.15 0.65
905 1 0.2 0.2 0.6
909 1 0.2 0.2 0.7
868 1 0.25 0.15 0.6
872 1 0.25 0.15 0.7
907 1 0.25 0.2 0.65
1266 1 0.3 0.15 0.65
1268 1 0.35 0.15 0.6
1272 1 0.35 0.15 0.7
1305 1 0.3 0.2 0.6
1307 1 0.35 0.2 0.65
1309 1 0.3 0.2 0.7
1666 1 0.4 0.15 0.65
1668 1 0.45 0.15 0.6
1672 1 0.45 0.15 0.7
1705 1 0.4 0.2 0.6
1707 1 0.45 0.2 0.65
1709 1 0.4 0.2 0.7
106 1 0 0.25 0.65
108 1 0.05 0.25 0.6
112 1 0.05 0.25 0.7
145 1 0 0.3 0.6
146 1 0 0.35 0.65
147 1 0.05 0.3 0.65
148 1 0.05 0.35 0.6
149 1 0 0.3 0.7
152 1 0.05 0.35 0.7
506 1 0.1 0.25 0.65
545 1 0.1 0.3 0.6
546 1 0.1 0.35 0.65
549 1 0.1 0.3 0.7
508 1 0.15 0.25 0.6
512 1 0.15 0.25 0.7
547 1 0.15 0.3 0.65
548 1 0.15 0.35 0.6
552 1 0.15 0.35 0.7
906 1 0.2 0.25 0.65
945 1 0.2 0.3 0.6
946 1 0.2 0.35 0.65
949 1 0.2 0.3 0.7
908 1 0.25 0.25 0.6
912 1 0.25 0.25 0.7
947 1 0.25 0.3 0.65
948 1 0.25 0.35 0.6
952 1 0.25 0.35 0.7
1306 1 0.3 0.25 0.65
1308 1 0.35 0.25 0.6
1312 1 0.35 0.25 0.7
1345 1 0.3 0.3 0.6
1346 1 0.3 0.35 0.65
1347 1 0.35 0.3 0.65
1348 1 0.35 0.35 0.6
1349 1 0.3 0.3 0.7
1352 1 0.35 0.35 0.7
1706 1 0.4 0.25 0.65
1708 1 0.45 0.25 0.6
1712 1 0.45 0.25 0.7
1745 1 0.4 0.3 0.6
1746 1 0.4 0.35 0.65
1747 1 0.45 0.3 0.65
1748 1 0.45 0.35 0.6
1749 1 0.4 0.3 0.7
1752 1 0.45 0.35 0.7
185 1 0 0.4 0.6
186 1 0 0.45 0.65
187 1 0.05 0.4 0.65
188 1 0.05 0.45 0.6
189 1 0 0.4 0.7
192 1 0.05 0.45 0.7
585 1 0.1 0.4 0.6
586 1 0.1 0.45 0.65
589 1 0.1 0.4 0.7
587 1 0.15 0.4 0.65
588 1 0.15 0.45 0.6
592 1 0.15 0.45 0.7
985 1 0.2 0.4 0.6
986 1 0.2 0.45 0.65
989 1 0.2 0.4 0.7
987 1 0.25 0.4 0.65
988 1 0.25 0.45 0.6
992 1 0.25 0.45 0.7
1385 1 0.3 0.4 0.6
1386 1 0.3 0.45 0.65
1387 1 0.35 0.4 0.65
1388 1 0.35 0.45 0.6
1389 1 0.3 0.4 0.7
1392 1 0.35 0.45 0.7
1785 1 0.4 0.4 0.6
1786 1 0.4 0.45 0.65
1787 1 0.45 0.4 0.65
1788 1 0.45 0.45 0.6
1789 1 0.4 0.4 0.7
1792 1 0.45 0.45 0.7
30 1 0 0.05 0.75
31 1 0.05 0 0.75
33 1 0 0 0.8
34 1 0 0.05 0.85
35 1 0.05 0 0.85
36 1 0.05 0.05 0.8
71 1 0.05 0.1 0.75
73 1 0 0.1 0.8
75 1 0.05 0.1 0.85
430 1 0.1 0.05 0.75
433 1 0.1 0 0.8
434 1 0.1 0.05 0.85
473 1 0.1 0.1 0.8
431 1 0.15 0 0.75
435 1 0.15 0 0.85
436 1 0.15 0.05 0.8
471 1 0.15 0.1 0.75
475 1 0.15 0.1 0.85
830 1 0.2 0.05 0.75
833 1 0.2 0 0.8
834 1 0.2 0.05 0.85
873 1 0.2 0.1 0.8
831 1 0.25 0 0.75
835 1 0.25 0 0.85
836 1 0.25 0.05 0.8
871 1 0.25 0.1 0.75
875 1 0.25 0.1 0.85
1230 1 0.3 0.05 0.75
1231 1 0.35 0 0.75
1233 1 0.3 0 0.8
1234 1 0.3 0.05 0.85
1235 1 0.35 0 0.85
1236 1 0.35 0.05 0.8
1271 1 0.35 0.1 0.75
1273 1 0.3 0.1 0.8
1275 1 0.35 0.1 0.85
1630 1 0.4 0.05 0.75
1631 1 0.45 0 0.75
1633 1 0.4 0 0.8
1634 1 0.4 0.05 0.85
1635 1 0.45 0 0.85
1636 1 0.45 0.05 0.8
1671 1 0.45 0.1 0.75
1673 1 0.4 0.1 0.8
1675 1 0.45 0.1 0.85
70 1 0 0.15 0.75
74 1 0 0.15 0.85
76 1 0.05 0.15 0.8
111 1 0.05 0.2 0.75
113 1 0 0.2 0.8
115 1 0.05 0.2 0.85
470 1 0.1 0.15 0.75
474 1 0.1 0.15 0.85
513 1 0.1 0.2 0.8
476 1 0.15 0.15 0.8
511 1 0.15 0.2 0.75
515 1 0.15 0.2 0.85
870 1 0.2 0.15 0.75
874 1 0.2 0.15 0.85
913 1 0.2 0.2 0.8
876 1 0.25 0.15 0.8
911 1 0.25 0.2 0.75
915 1 0.25 0.2 0.85
1270 1 0.3 0.15 0.75
1274 1 0.3 0.15 0.85
1276 1 0.35 0.15 0.8
1311 1 0.35 0.2 0.75
1313 1 0.3 0.2 0.8
1315 1 0.35 0.2 0.85
1670 1 0.4 0.15 0.75
1674 1 0.4 0.15 0.85
1676 1 0.45 0.15 0.8
1711 1 0.45 0.2 0.75
1713 1 0.4 0.2 0.8
1715 1 0.45 0.2 0.85
110 1 0 0.25 0.75
114 1 0 0.25 0.85
116 1 0.05 0.25 0.8
150 1 0 0.35 0.75
151 1 0.05 0.3 0.75
153 1 0 0.3 0.8
154 1 0 0.35 0.85
155 1 0.05 0.3 0.85
156 1 0.05 0.35 0.8
510 1 0.1 0.25 0.75
514 1 0.1 0.25 0.85
550 1 0.1 0.35 0.75
553 1 0.1 0.3 0.8
554 1 0.1 0.35 0.85
516 1 0.15 0.25 0.8
551 1 0.15 0.3 0.75
555 1 0.15 0.3 0.85
556 1 0.15 0.35 0.8
910 1 0.2 0.25 0.75
914 1 0.2 0.25 0.85
950 1 0.2 0.35 0.75
953 1 0.2 0.3 0.8
954 1 0.2 0.35 0.85
916 1 0.25 0.25 0.8
951 1 0.25 0.3 0.75
955 1 0.25 0.3 0.85
956 1 0.25 0.35 0.8
1310 1 0.3 0.25 0.75
1314 1 0.3 0.25 0.85
1316 1 0.35 0.25 0.8
1350 1 0.3 0.35 0.75
1351 1 0.35 0.3 0.75
1353 1 0.3 0.3 0.8
1354 1 0.3 0.35 0.85
1355 1 0.35 0.3 0.85
1356 1 0.35 0.35 0.8
1710 1 0.4 0.25 0.75
1714 1 0.4 0.25 0.85
1716 1 0.45 0.25 0.8
1750 1 0.4 0.35 0.75
1751 1 0.45 0.3 0.75
1753 1 0.4 0.3 0.8
1754 1 0.4 0.35 0.85
1755 1 0.45 0.3 0.85
1756 1 0.45 0.35 0.8
190 1 0 0.45 0.75
191 1 0.05 0.4 0.75
193 1 0 0.4 0.8
194 1 0 0.45 0.85
195 1 0.05 0.4 0.85
196 1 0.05 0.45 0.8
590 1 0.1 0.45 0.75
593 1 0.1 0.4 0.8
594 1 0.1 0.45 0.85
591 1 0.15 0.4 0.75
595 1 0.15 0.4 0.85
596 1 0.15 0.45 0.8
990 1 0.2 0.45 0.75
993 1 0.2 0.4 0.8
994 1 0.2 0.45 0.85
991 1 0.25 0.4 0.75
995 1 0.25 0.4 0.85
996 1 0.25 0.45 0.8
1390 1 0.3 0.45 0.75
1391 1 0.35 0.4 0.75
1393 1 0.3 0.4 0.8
1394 1 0.3 0.45 0.85
1395 1 0.35 0.4 0.85
1396 1 0.35 0.45 0.8
1790 1 0.4 0.45 0.75
1791 1 0.45 0.4 0.75
1793 1 0.4 0.4 0.8
1794 1 0.4 0.45 0.85
1795 1 0.45 0.4 0.85
1796 1 0.45 0.45 0.8
37 1 0 0 0.9
38 1 0 0.05 0.95
39 1 0.05 0 0.95
40 1 0.05 0.05 0.9
77 1 0 0.1 0.9
79 1 0.05 0.1 0.95
437 1 0.1 0 0.9
438 1 0.1 0.05 0.95
477 1 0.1 0.1 0.9
439 1 0.15 0 0.95
440 1 0.15 0.05 0.9
479 1 0.15 0.1 0.95
837 1 0.2 0 0.9
838 1 0.2 0.05 0.95
877 1 0.2 0.1 0.9
839 1 0.25 0 0.95
840 1 0.25 0.05 0.9
879 1 0.25 0.1 0.95
1237 1 0.3 0 0.9
1238 1 0.3 0.05 0.95
1239 1 0.35 0 0.95
1240 1 0.35 0.05 0.9
1277 1 0.3 0.1 0.9
1279 1 0.35 0.1 0.95
1637 1 0.4 0 0.9
1638 1 0.4 0.05 0.95
1639 1 0.45 0 0.95
1640 1 0.45 0.05 0.9
1677 1 0.4 0.1 0.9
1679 1 0.45 0.1 0.95
78 1 0 0.15 0.95
80 1 0.05 0.15 0.9
117 1 0 0.2 0.9
119 1 0.05 0.2 0.95
478 1 0.1 0.15 0.95
517 1 0.1 0.2 0.9
480 1 0.15 0.15 0.9
519 1 0.15 0.2 0.95
878 1 0.2 0.15 0.95
917 1 0.2 0.2 0.9
880 1 0.25 0.15 0.9
919 1 0.25 0.2 0.95
1278 1 0.3 0.15 0.95
1280 1 0.35 0.15 0.9
1317 1 0.3 0.2 0.9
1319 1 0.35 0.2 0.95
1678 1 0.4 0.15 0.95
1680 1 0.45 0.15 0.9
1717 1 0.4 0.2 0.9
1719 1 0.45 0.2 0.95
118 1 0 0.25 0.95
120 1 0.05 0.25 0.9
157 1 0 0.3 0.9
158 1 0 0.35 0.95
159 1 0.05 0.3 0.95
160 1 0.05 0.35 0.9
518 1 0.1 0.25 0.95
557 1 0.1 0.3 0.9
558 1 0.1 0.35 0.95
520 1 0.15 0.25 0.9
559 1 0.15 0.3 0.95
560 1 0.15 0.35 0.9
918 1 0.2 0.25 0.95
957 1 0.2 0.3 0.9
958 1 0.2 0.35 0.95
920 1 0.25 0.25 0.9
959 1 0.25 0.3 0.95
960 1 0.25 0.35 0.9
1318 1 0.3 0.25 0.95
1320 1 0.35 0.25 0.9
1357 1 0.3 0.3 0.9
1358 1 0.3 0.35 0.95
1359 1 0.35 0.3 0.95
1360 1 0.35 0.35 0.9
1718 1 0.4 0.25 0.95
1720 1 0.45 0.25 0.9
1757 1 0.4 0.3 0.9
1758 1 0.4 0.35 0.95
1759 1 0.45 0.3 0.95
1760 1 0.45 0.35 0.9
197 1 0 0.4 0.9
198 1 0 0.45 0.95
199 1 0.05 0.4 0.95
200 1 0.05 0.45 0.9
597 1 0.1 0.4 0.9
598 1 0.1 0.45 0.95
599 1 0.15 0.4 0.95
600 1 0.15 0.45 0.9
997 1 0.2 0.4 0.9
998 1 0.2 0.45 0.95
999 1 0.25 0.4 0.95
1000 1 0.25 0.45 0.9
1397 1 0.3 0.4 0.9
1398 1 0.3 0.45 0.95
1399 1 0.35 0.4 0.95
1400 1 0.35 0.45 0.9
1797 1 0.4 0.4 0.9
1798 1 0.4 0.45 0.95
1799 1 0.45 0.4 0.95
1800 1 0.45 0.45 0.9
201 1 0 0.5 0
202 1 0 0.55 0.05
203 1 0.05 0.5 0.05
204 1 0.05 0.55 0
205 1 0 0.5 0.1
208 1 0.05 0.55 0.1
241 1 0 0.6 0
243 1 0.05 0.6 0.05
245 1 0 0.6 0.1
601 1 0.1 0.5 0
602 1 0.1 0.55 0.05
605 1 0.1 0.5 0.1
641 1 0.1 0.6 0
645 1 0.1 0.6 0.1
603 1 0.15 0.5 0.05
604 1 0.15 0.55 0
608 1 0.15 0.55 0.1
643 1 0.15 0.6 0.05
1001 1 0.2 0.5 0
1002 1 0.2 0.55 0.05
1005 1 0.2 0.5 0.1
1041 1 0.2 0.6 0
1045 1 0.2 0.6 0.1
1003 1 0.25 0.5 0.05
1004 1 0.25 0.55 0
1008 1 0.25 0.55 0.1
1043 1 0.25 0.6 0.05
1401 1 0.3 0.5 0
1402 1 0.3 0.55 0.05
1403 1 0.35 0.5 0.05
1404 1 0.35 0.55 0
1405 1 0.3 0.5 0.1
1408 1 0.35 0.55 0.1
1441 1 0.3 0.6 0
1443 1 0.35 0.6 0.05
1445 1 0.3 0.6 0.1
1801 1 0.4 0.5 0
1802 1 0.4 0.55 0.05
1803 1 0.45 0.5 0.05
1804 1 0.45 0.55 0
1805 1 0.4 0.5 0.1
1808 1 0.45 0.55 0.1
1841 1 0.4 0.6 0
1843 1 0.45 0.6 0.05
1845 1 0.4 0.6 0.1
242 1 0 0.65 0.05
244 1 0.05 0.65 0
248 1 0.05 0.65 0.1
281 1 0 0.7 0
283 1 0.05 0.7 0.05
285 1 0 0.7 0.1
642 1 0.1 0.65 0.05
681 1 0.1 0.7 0
685 1 0.1 0.7 0.1
644 1 0.15 0.65 0
648 1 0.15 0.65 0.1
683 1 0.15 0.7 0.05
1042 1 0.2 0.65 0.05
1081 1 0.2 0.7 0
1085 1 0.2 0.7 0.1
1044 1 0.25 0.65 0
1048 1 0.25 0.65 0.1
1083 1 0.25 0.7 0.05
1442 1 0.3 0.65 0.05
1444 1 0.35 0.65 0
1448 1 0.35 0.65 0.1
1481 1 0.3 0.7 0
1483 1 0.35 0.7 0.05
1485 1 0.3 0.7 0.1
1842 1 0.4 0.65 0.05
1844 1 0.45 0.65 0
1848 1 0.45 0.65 0.1
1881 1 0.4 0.7 0
1883 1 0.45 0.7 0.05
1885 1 0.4 0.7 0.1
282 1 0 0.75 0.05
284 1 0.05 0.75 0
288 1 0.05 0.75 0.1
321 1 0 0.8 0
322 1 0 0.85 0.05
323 1 0.05 0.8 0.05
324 1 0.05 0.85 0
325 1 0 0.8 0.1
328 1 0.05 0.85 0.1
682 1 0.1 0.75 0.05
721 1 0.1 0.8 0
722 1 0.1 0.85 0.05
725 1 0.1 0.8 0.1
684 1 0.15 0.75 0
688 1 0.15 0.75 0.1
723 1 0.15 0.8 0.05
724 1 0.15 0.85 0
728 1 0.15 0.85 0.1
1082 1 0.2 0.75 0.05
1121 1 0.2 0.8 0
1122 1 0.2 0.85 0.05
1125 1 0.2 0.8 0.1
1084 1 0.25 0.75 0
1088 1 0.25 0.75 0.1
1123 1 0.25 0.8 0.05
1124 1 0.25 0.85 0
1128 1 0.25 0.85 0.1
1482 1 0.3 0.75 0.05
1484 1 0.35 0.75 0
1488 1 0.35 0.75 0.1
1521 1 0.3 0.8 0
1522 1 0.3 0.85 0.05
1523 1 0.35 0.8 0.05
1524 1 0.35 0.85 0
1525 1 0.3 0.8 0.1
1528 1 0.35 0.85 0.1
1882 1 0.4 0.75 0.05
1884 1 0.45 0.75 0
1888 1 0.45 0.75 0.1
1921 1 0.4 0.8 0
1922 1 0.4 0.85 0.05
1923 1 0.45 0.8 0.05
1924 1 0.45 0.85 0
1925 1 0.4 0.8 0.1
1928 1 0.45 0.85 0.1
361 1 0 0.9 0
362 1 0 0.95 0.05
363 1 0.05 0.9 0.05
364 1 0.05 0.95 0
365 1 0 0.9 0.1
368 1 0.05 0.95 0.1
761 1 0.1 0.9 0
762 1 0.1 0.95 0.05
765 1 0.1 0.9 0.1
763 1 0.15 0.9 0.05
764 1 0.15 0.95 0
768 1 0.15 0.95 0.1
1161 1 0.2 0.9 0
1162 1 0.2 0.95 0.05
1165 1 0.2 0.9 0.1
1163 1 0.25 0.9 0.05
1164 1 0.25 0.95 0
1168 1 0.25 0.95 0.1
1561 1 0.3 0.9 0
1562 1 0.3 0.95 0.05
1563 1 0.35 0.9 0.05
1564 1 0.35 0.95 0
1565 1 0.3 0.9 0.1
1568 1 0.35 0.95 0.1
1961 1 0.4 0.9 0
1962 1 0.4 0.95 0.05
1963 1 0.45 0.9 0.05
1964 1 0.45 0.95 0
1965 1 0.4 0.9 0.1
1968 1 0.45 0.95 0.1
206 1 0 0.55 0.15
207 1 0.05 0.5 0.15
209 1 0 0.5 0.2
210 1 0 0.55 0.25
211 1 0.05 0.5 0.25
212 1 0.05 0.55 0.2
247 1 0.05 0.6 0.15
249 1 0 0.6 0.2
251 1 0.05 0.6 0.25
606 1 0.1 0.55 0.15
609 1 0.1 0.5 0.2
610 1 0.1 0.55 0.25
649 1 0.1 0.6 0.2
607 1 0.15 0.5 0.15
611 1 0.15 0.5 0.25
612 1 0.15 0.55 0.2
647 1 0.15 0.6 0.15
651 1 0.15 0.6 0.25
1006 1 0.2 0.55 0.15
1009 1 0.2 0.5 0.2
1010 1 0.2 0.55 0.25
1049 1 0.2 0.6 0.2
1007 1 0.25 0.5 0.15
1011 1 0.25 0.5 0.25
1012 1 0.25 0.55 0.2
1047 1 0.25 0.6 0.15
1051 1 0.25 0.6 0.25
1406 1 0.3 0.55 0.15
1407 1 0.35 0.5 0.15
1409 1 0.3 0.5 0.2
1410 1 0.3 0.55 0.25
1411 1 0.35 0.5 0.25
1412 1 0.35 0.55 0.2
1447 1 0.35 0.6 0.15
1449 1 0.3 0.6 0.2
1451 1 0.35 0.6 0.25
1806 1 0.4 0.55 0.15
1807 1 0.45 0.5 0.15
1809 1 0.4 0.5 0.2
1810 1 0.4 0.55 0.25
1811 1 0.45 0.5 0.25
1812 1 0.45 0.55 0.2
1847 1 0.45 0.6 0.15
1849 1 0.4 0.6 0.2
1851 1 0.45 0.6 0.25
246 1 0 0.65 0.15
250 1 0 0.65 0.25
252 1 0.05 0.65 0.2
287 1 0.05 0.7 0.15
289 1 0 0.7 0.2
291 1 0.05 0.7 0.25
646 1 0.1 0.65 0.15
650 1 0.1 0.65 0.25
689 1 0.1 0.7 0.2
652 1 0.15 0.65 0.2
687 1 0.15 0.7 0.15
691 1 0.15 0.7 0.25
1046 1 0.2 0.65 0.15
1050 1 0.2 0.65 0.25
1089 1 0.2 0.7 0.2
1052 1 0.25 0.65 0.2
1087 1 0.25 0.7 0.15
1091 1 0.25 0.7 0.25
1446 1 0.3 0.65 0.15
1450 1 0.3 0.65 0.25
1452 1 0.35 0.65 0.2
1487 1 0.35 0.7 0.15
1489 1 0.3 0.7 0.2
1491 1 0.35 0.7 0.25
1846 1 0.4 0.65 0.15
1850 1 0.4 0.65 0.25
1852 1 0.45 0.65 0.2
1887 1 0.45 0.7 0.15
1889 1 0.4 0.7 0.2
1891 1 0.45 0.7 0.25
286 1 0 0.75 0.15
290 1 0 0.75 0.25
292 1 0.05 0.75 0.2
326 1 0 0.85 0.15
327 1 0.05 0.8 0.15
329 1 0 0.8 0.2
330 1 0 0.85 0.25
331 1 0.05 0.8 0.25
332 1 0.05 0.85 0.2
686 1 0.1 0.75 0.15
690 1 0.1 0.75 0.25
726 1 0.1 0.85 0.15
729 1 0.1 0.8 0.2
730 1 0.1 0.85 0.25
692 1 0.15 0.75 0.2
727 1 0.15 0.8 0.15
731 1 0.15 0.8 0.25
732 1 0.15 0.85 0.2
1086 1 0.2 0.75 0.15
1090 1 0.2 0.75 0.25
1126 1 0.2 0.85 0.15
1129 1 0.2 0.8 0.2
1130 1 0.2 0.85 0.25
1092 1 0.25 0.75 0.2
1127 1 0.25 0.8 0.15
1131 1 0.25 0.8 0.25
1132 1 0.25 0.85 0.2
1486 1 0.3 0.75 0.15
1490 1 0.3 0.75 0.25
1492 1 0.35 0.75 0.2
1526 1 0.3 0.85 0.15
1527 1 0.35 0.8 0.15
1529 1 0.3 0.8 0.2
1530 1 0.3 0.85 0.25
1531 1 0.35 0.8 0.25
1532 1 0.35 0.85 0.2
1886 1 0.4 0.75 0.15
1890 1 0.4 0.75 0.25
1892 1 0.45 0.75 0.2
1926 1 0.4 0.85 0.15
1927 1 0.45 0.8 0.15
1929 1 0.4 0.8 0.2
1930 1 0.4 0.85 0.25
1931 1 0.45 0.8 0.25
1932 1 0.45 0.85 0.2
366 1 0 0.95 0.15
367 1 0.05 0.9 0.15
369 1 0 0.9 0.2
370 1 0 0.95 0.25
371 1 0.05 0.9 0.25
372 1 0.05 0.95 0.2
766 1 0.1 0.95 0.15
769 1 0.1 0.9 0.2
770 1 0.1 0.95 0.25
767 1 0.15 0.9 0.15
771 1 0.15 0.9 0.25
772 1 0.15 0.95 0.2
1166 1 0.2 0.95 0.15
1169 1 0.2 0.9 0.2
1170 1 0.2 0.95 0.25
1167 1 0.25 0.9 0.15
1171 1 0.25 0.9 0.25
1172 1 0.25 0.95 0.2
1566 1 0.3 0.95 0.15
1567 1 0.35 0.9 0.15
1569 1 0.3 0.9 0.2
1570 1 0.3 0.95 0.25
1571 1 0.35 0.9 0.25
1572 1 0.35 0.95 0.2
1966 1 0.4 0.95 0.15
1967 1 0.45 0.9 0.15
1969 1 0.4 0.9 0.2
1970 1 0.4 0.95 0.25
1971 1 0.45 0.9 0.25
1972 1 0.45 0.95 0.2
213 1 0 0.5 0.3
214 1 0 0.55 0.35
215 1 0.05 0.5 0.35
216 1 0.05 0.55 0.3
217 1 0 0.5 0.4
220 1 0.05 0.55 0.4
253 1 0 0.6 0.3
255 1 0.05 0.6 0.35
257 1 0 0.6 0.4
613 1 0.1 0.5 0.3
614 1 0.1 0.55 0.35
617 1 0.1 0.5 0.4
653 1 0.1 0.6 0.3
657 1 0.1 0.6 0.4
615 1 0.15 0.5 0.35
616 1 0.15 0.55 0.3
620 1 0.15 0.55 0.4
655 1 0.15 0.6 0.35
1013 1 0.2 0.5 0.3
1014 1 0.2 0.55 0.35
1017 1 0.2 0.5 0.4
1053 1 0.2 0.6 0.3
1057 1 0.2 0.6 0.4
1015 1 0.25 0.5 0.35
1016 1 0.25 0.55 0.3
1020 1 0.25 0.55 0.4
1055 1 0.25 0.6 0.35
1413 1 0.3 0.5 0.3
1414 1 0.3 0.55 0.35
1415 1 0.35 0.5 0.35
1416 1 0.35 0.55 0.3
1417 1 0.3 0.5 0.4
1420 1 0.35 0.55 0.4
1453 1 0.3 0.6 0.3
1455 1 0.35 0.6 0.35
1457 1 0.3 0.6 0.4
1813 1 0.4 0.5 0.3
1814 1 0.4 0.55 0.35
1815 1 0.45 0.5 0.35
1816 1 0.45 0.55 0.3
1817 1 0.4 0.5 0.4
1820 1 0.45 0.55 0.4
1853 1 0.4 0.6 0.3
1855 1 0.45 0.6 0.35
1857 1 0.4 0.6 0.4
254 1 0 0.65 0.35
256 1 0.05 0.65 0.3
260 1 0.05 0.65 0.4
293 1 0 0.7 0.3
295 1 0.05 0.7 0.35
297 1 0 0.7 0.4
654 1 0.1 0.65 0.35
693 1 0.1 0.7 0.3
697 1 0.1 0.7 0.4
656 1 0.15 0.65 0.3
660 1 0.15 0.65 0.4
695 1 0.15 0.7 0.35
1054 1 0.2 0.65 0.35
1093 1 0.2 0.7 0.3
1097 1 0.2 0.7 0.4
1056 1 0.25 0.65 0.3
1060 1 0.25 0.65 0.4
1095 1 0.25 0.7 0.35
1454 1 0.3 0.65 0.35
1456 1 0.35 0.65 0.3
1460 1 0.35 0.65 0.4
1493 1 0.3 0.7 0.3
1495 1 0.35 0.7 0.35
1497 1 0.3 0.7 0.4
1854 1 0.4 0.65 0.35
1856 1 0.45 0.65 0.3
1860 1 0.45 0.65 0.4
1893 1 0.4 0.7 0.3
1895 1 0.45 0.7 0.35
1897 1 0.4 0.7 0.4
294 1 0 0.75 0.35
296 1 0.05 0.75 0.3
300 1 0.05 0.75 0.4
333 1 0 0.8 0.3
334 1 0 0.85 0.35
335 1 0.05 0.8 0.35
336 1 0.05 0.85 0.3
337 1 0 0.8 0.4
340 1 0.05 0.85 0.4
694 1 0.1 0.75 0.35
733 1 0.1 0.8 0.3
734 1 0.1 0.85 0.35
737 1 0.1 0.8 0.4
696 1 0.15 0.75 0.3
700 1 0.15 0.75 0.4
735 1 0.15 0.8 0.35
736 1 0.15 0.85 0.3
740 1 0.15 0.85 0.4
1094 1 0.2 0.75 0.35
1133 1 0.2 0.8 0.3
1134 1 0.2 0.85 0.35
1137 1 0.2 0.8 0.4
1096 1 0.25 0.75 0.3
1100 1 0.25 0.75 0.4
1135 1 0.25 0.8 0.35
1136 1 0.25 0.85 0.3
1140 1 0.25 0.85 0.4
1494 1 0.3 0.75 0.35
1496 1 0.35 0.75 0.3
1500 1 0.35 0.75 0.4
1533 1 0.3 0.8 0.3
1534 1 0.3 0.85 0.35
1535 1 0.35 0.8 0.35
1536 1 0.35 0.85 0.3
1537 1 0.3 0.8 0.4
1540 1 0.35 0.85 0.4
1894 1 0.4 0.75 0.35
1896 1 0.45 0.75 0.3
1900 1 0.45 0.75 0.4
1933 1 0.4 0.8 0.3
1934 1 0.4 0.85 0.35
1935 1 0.45 0.8 0.35
1936 1 0.45 0.85 0.3
1937 1 0.4 0.8 0.4
1940 1 0.45 0.85 0.4
373 1 0 0.9 0.3
374 1 0 0.95 0.35
375 1 0.05 0.9 0.35
376 1 0.05 0.95 0.3
377 1 0 0.9 0.4
380 1 0.05 0.95 0.4
773 1 0.1 0.9 0.3
774 1 0.1 0.95 0.35
777 1 0.1 0.9 0.4
775 1 0.15 0.9 0.35
776 1 0.15 0.95 0.3
780 1 0.15 0.95 0.4
1173 1 0.2 0.9 0.3
1174 1 0.2 0.95 0.35
1177 1 0.2 0.9 0.4
1175 1 0.25 0.9 0.35
1176 1 0.25 0.95 0.3
1180 1 0.25 0.95 0.4
1573 1 0.3 0.9 0.3
1574 1 0.3 0.95 0.35
1575 1 0.35 0.9 0.35
1576 1 0.35 0.95 0.3
1577 1 0.3 0.9 0.4
1580 1 0.35 0.95 0.4
1973 1 0.4 0.9 0.3
1974 1 0.4 0.95 0.35
1975 1 0.45 0.9 0.35
1976 1 0.45 0.95 0.3
1977 1 0.4 0.9 0.4
1980 1 0.45 0.95 0.4
218 1 0 0.55 0.45
219 1 0.05 0.5 0.45
221 1 0 0.5 0.5
222 1 0 0.55 0.55
223 1 0.05 0.5 0.55
224 1 0.05 0.55 0.5
259 1 0.05 0.6 0.45
261 1 0 0.6 0.5
263 1 0.05 0.6 0.55
618 1 0.1 0.55 0.45
621 1 0.1 0.5 0.5
622 1 0.1 0.55 0.55
661 1 0.1 0.6 0.5
619 1 0.15 0.5 0.45
623 1 0.15 0.5 0.55
624 1 0.15 0.55 0.5
659 1 0.15 0.6 0.45
663 1 0.15 0.6 0.55
1018 1 0.2 0.55 0.45
1021 1 0.2 0.5 0.5
1022 1 0.2 0.55 0.55
1061 1 0.2 0.6 0.5
1019 1 0.25 0.5 0.45
1023 1 0.25 0.5 0.55
1024 1 0.25 0.55 0.5
1059 1 0.25 0.6 0.45
1063 1 0.25 0.6 0.55
1418 1 0.3 0.55 0.45
1419 1 0.35 0.5 0.45
1421 1 0.3 0.5 0.5
1422 1 0.3 0.55 0.55
1423 1 0.35 0.5 0.55
1424 1 0.35 0.55 0.5
1459 1 0.35 0.6 0.45
1461 1 0.3 0.6 0.5
1463 1 0.35 0.6 0.55
1818 1 0.4 0.55 0.45
1819 1 0.45 0.5 0.45
1821 1 0.4 0.5 0.5
1822 1 0.4 0.55 0.55
1823 1 0.45 0.5 0.55
1824 1 0.45 0.55 0.5
1859 1 0.45 0.6 0.45
1861 1 0.4 0.6 0.5
1863 1 0.45 0.6 0.55
258 1 0 0.65 0.45
262 1 0 0.65 0.55
264 1 0.05 0.65 0.5
299 1 0.05 0.7 0.45
301 1 0 0.7 0.5
303 1 0.05 0.7 0.55
658 1 0.1 0.65 0.45
662 1 0.1 0.65 0.55
701 1 0.1 0.7 0.5
664 1 0.15 0.65 0.5
699 1 0.15 0.7 0.45
703 1 0.15 0.7 0.55
1058 1 0.2 0.65 0.45
1062 1 0.2 0.65 0.55
1101 1 0.2 0.7 0.5
1064 1 0.25 0.65 0.5
1099 1 0.25 0.7 0.45
1103 1 0.25 0.7 0.55
1458 1 0.3 0.65 0.45
1462 1 0.3 0.65 0.55
1464 1 0.35 0.65 0.5
1499 1 0.35 0.7 0.45
1501 1 0.3 0.7 0.5
1503 1 0.35 0.7 0.55
1858 1 0.4 0.65 0.45
1862 1 0.4 0.65 0.55
1864 1 0.45 0.65 0.5
1899 1 0.45 0.7 0.45
1901 1 0.4 0.7 0.5
1903 1 0.45 0.7 0.55
298 1 0 0.75 0.45
302 1 0 0.75 0.55
304 1 0.05 0.75 0.5
338 1 0 0.85 0.45
339 1 0.05 0.8 0.45
341 1 0 0.8 0.5
342 1 0 0.85 0.55