
#-----------Setup----------------------
units metal            #Energy = eV , Distance= Angstroms
dimension 3
boundary p p p         #Periodic boundary conditions
atom_style atomic

# ---------- Read Data ---------------------
# Read config files (get the structure from https://www.materialsproject.org/)
read_data Al_mp-10x10x10.data
  orthogonal box = (-16.1557 -16.1557 -16.1557) to (24.2336 24.2336 24.2336)
  2 by 2 by 7 MPI processor grid
  reading atoms ...
  4000 atoms

pair_style eam/alloy
pair_coeff * *  LAMMPS_POTENTIALS/AlCu.eam.alloy Al
Reading potential file LAMMPS_POTENTIALS/AlCu.eam.alloy with DATE: 2008-10-01
neighbor 2.0 bin
neigh_modify delay 10 check yes


#--------- NPT-------
reset_timestep 0
timestep 0.001

thermo 1000
thermo_style custom step pe ke etotal enthalpy temp vol press
velocity all create ${temp_s} 1518772
velocity all create 350 1518772
fix 1 all npt temp ${temp_s} ${temp_s} 0.5 iso ${press_s} ${press_s} 5
fix 1 all npt temp 350 ${temp_s} 0.5 iso ${press_s} ${press_s} 5
fix 1 all npt temp 350 350 0.5 iso ${press_s} ${press_s} 5
fix 1 all npt temp 350 350 0.5 iso 1 ${press_s} 5
fix 1 all npt temp 350 350 0.5 iso 1 1 5
dump 2 all atom 2000 dump.npt${fileprefix}
dump 2 all atom 2000 dump.nptHW3_NPT350
run 60000
Neighbor list info ...
  1 neighbor list requests
  update every 1 steps, delay 10 steps, check yes
  max neighbors/atom: 2000, page size: 100000
  master list distance cutoff = 8.6825
  ghost atom cutoff = 8.6825
  binsize = 4.34125 -> bins = 10 10 10
Memory usage per processor = 3.68573 Mbytes
Step PotEng KinEng TotEng Enthalpy Temp Volume Press 
       0   -13203.173    180.91896   -13022.254   -12813.253          350    65886.855    5082.2896 
    1000   -13072.326    179.76084   -12892.565   -12961.782    347.75953    68704.056   -1614.1487 
    2000   -13081.696     184.1626   -12897.533   -13027.026    356.27503    68778.669   -3016.4799 
    3000   -13082.083    176.81802   -12905.265   -12960.119    342.06644    68601.542   -1281.1074 
    4000   -13084.751    187.65414   -12897.096   -12928.967    363.02966    68545.521   -744.95009 
    5000   -13069.353    173.90084   -12895.452   -12854.748    336.42297    68499.243    952.06306 
    6000   -13082.837     180.8213   -12902.016   -12885.587    349.81107    68453.452    384.51531 
    7000   -13083.479    183.99534   -12899.484   -12895.372    355.95147    68479.151     96.20692 
    8000   -13070.775    175.68187   -12895.093   -12866.762    339.86849    68531.876    662.33032 
    9000   -13079.198    178.00854   -12901.189   -12900.526    344.36959    68517.892    15.508814 
   10000   -13086.168    186.14557   -12900.023   -12930.719    360.11122    68532.104   -717.63672 
   11000   -13075.407    181.40474   -12894.003   -12898.265    350.93976    68568.942   -99.601865 
   12000   -13079.886    179.25291   -12900.633   -12904.151     346.7769    68522.461   -82.266356 
   13000   -13080.774    182.26068   -12898.513   -12897.287    352.59564     68511.86    28.675112 
   14000   -13075.758    182.80576   -12892.952   -12892.666    353.65014    68557.153    6.6897705 
   15000   -13077.345    177.63759   -12899.708   -12888.685    343.65197    68516.509    257.76106 
   16000   -13084.323    185.06314    -12899.26   -12917.884     358.0172    68526.221   -435.45936 
   17000   -13076.569    184.89813   -12891.671   -12907.066    357.69797    68591.463   -359.61687 
   18000   -13074.929    175.74494   -12899.184   -12875.795    339.99051     68505.14    547.00003 
   19000   -13084.855    185.93749   -12898.917   -12911.119    359.70868    68508.062   -285.35355 
   20000    -13078.04    185.01531   -12893.025   -12895.812    357.92466    68556.859   -65.145884 
   21000   -13080.175    181.63493    -12898.54   -12904.851    351.38508     68533.81   -147.52236 
   22000   -13081.966     181.4574   -12900.509   -12919.663    351.04165    68545.523   -447.71726 
   23000   -13077.475    184.22059   -12893.254   -12907.806    356.38722    68581.097   -339.96956 
   24000   -13075.951    182.95515   -12892.996   -12896.563    353.93913    68571.961     -83.3411 
   25000   -13081.294     179.9156   -12901.379   -12892.481    348.05893    68487.971    208.14663 
   26000   -13078.475    181.05797   -12897.417   -12868.208    350.26893    68480.102    683.37729 
   27000   -13074.201    179.96397   -12894.237   -12858.946     348.1525    68499.747    825.42663 
   28000   -13082.434    180.39036   -12902.043   -12893.547    348.97737    68479.907    198.77262 
   29000   -13077.843    181.83826   -12896.005    -12907.81    351.77844    68575.865   -275.79429 
   30000   -13077.769    178.89696   -12898.872   -12924.659     346.0883    68600.847   -602.26297 
   31000   -13080.185    177.59431    -12902.59   -12927.227    343.56823      68577.4    -575.5855 
   32000   -13076.222    178.97807   -12897.244   -12887.525    346.24522    68544.217    227.16965 
   33000    -13079.84    181.65135   -12898.189   -12859.254    351.41685    68442.599    911.42634 
   34000   -13086.662    184.12975   -12902.532   -12865.916    356.21149    68386.866       857.84 
   35000   -13082.425    179.29936   -12903.125   -12871.207    346.86677    68424.239    747.38092 
   36000   -13075.965    179.66758   -12896.297   -12900.476    347.57912    68570.904   -97.632327 
   37000   -13080.952    179.98312   -12900.969   -12960.812    348.18956    68644.076   -1396.7638 
   38000    -13081.94    178.31226   -12903.628   -12968.504    344.95715    68643.407   -1514.2486 
   39000   -13079.412    180.11269   -12899.299   -12918.707    348.44022      68570.4   -453.46695 
   40000   -13077.257    182.54733    -12894.71   -12858.894     353.1502    68476.826     838.0141 
   41000   -13079.724    182.65237   -12897.072    -12837.09    353.35339    68400.476    1404.9952 
   42000   -13083.687    182.10711    -12901.58   -12863.818    352.29855    68405.175    884.46154 
   43000   -13075.907    182.72431   -12893.182   -12889.496    353.49256    68563.253    86.146705 
   44000   -13075.389    179.34225   -12896.046   -12917.866    346.94974    68613.642   -509.50596 
   45000    -13081.22    180.93199   -12900.288    -12940.87     350.0252     68599.11   -947.82285 
   46000   -13078.995    183.05632   -12895.939   -12916.051    354.13487    68581.831   -469.85367 
   47000   -13079.462    185.01796   -12894.444   -12890.557    357.92978    68529.837    90.866416 
   48000   -13079.402    179.19945   -12900.202   -12868.783     346.6735    68462.359    735.28596 
   49000   -13079.753    183.52656   -12896.226   -12871.904    355.04458    68478.683    569.06291 
   50000   -13076.751    183.34325   -12893.408   -12884.111    354.68995    68541.675    217.31867 
   51000   -13077.123    178.63605   -12898.487   -12903.545    345.58354    68564.832   -118.19522 
   52000   -13078.512    178.25528   -12900.257   -12919.112    344.84692    68573.593   -440.53392 
   53000   -13078.969    179.23132   -12899.737   -12910.971    346.73514    68555.959   -262.52729 
   54000   -13077.914    183.89002   -12894.024   -12896.765    355.74772    68556.549   -64.053162 
   55000   -13081.139    178.36122   -12902.778   -12873.803    345.05187    68447.029    678.23008 
   56000   -13083.943     184.6698   -12899.274    -12891.55    357.25626    68474.028    180.73026 
   57000   -13079.253    182.47604   -12896.777   -12896.011    353.01228    68534.806    17.900738 
   58000   -13082.921    183.85538   -12899.066   -12927.665     355.6807    68565.435   -668.27214 
   59000   -13080.713    181.43402   -12899.279   -12930.489    350.99642    68591.335    -729.0231 
   60000   -13074.219    177.90395   -12896.315   -12903.934    344.16726    68593.008   -177.96672 
Loop time of 6569.4 on 28 procs for 60000 steps with 4000 atoms

Performance: 0.789 ns/day, 30.414 hours/ns, 9.133 timesteps/s
96.3% CPU use with 28 MPI tasks x no OpenMP threads

MPI task timing breakdown:
Section |  min time  |  avg time  |  max time  |%varavg| %total
---------------------------------------------------------------
Pair    | 1207.5     | 1442.2     | 1599.9     | 255.4 | 21.95
Neigh   | 0.13114    | 0.14976    | 0.16397    |   2.6 |  0.00
Comm    | 1567.1     | 1780.8     | 2038.1     | 279.2 | 27.11
Output  | 4.3107     | 4.369      | 4.4255     |   1.2 |  0.07
Modify  | 2582.7     | 2695       | 2820.5     | 108.1 | 41.02
Other   |            | 646.9      |            |       |  9.85

Nlocal:    142.857 ave 160 max 117 min
Histogram: 2 2 2 2 1 2 4 4 7 2
Nghost:    1902.07 ave 2028 max 1828 min
Histogram: 12 1 5 2 0 0 0 0 0 8
Neighs:    11295.4 ave 13228 max 9152 min
Histogram: 1 3 4 0 4 7 1 1 4 3

Total # of neighbors = 316271
Ave neighs/atom = 79.0678
Neighbor list builds = 343
Dangerous builds = 0
unfix 1
undump 2

######################################
# SIMULATION DONE
print "All done"
All done
Total wall time: 1:49:31
